+ 0.1 3 9 cbr 512 ------- 1 3.0 18.0 0 0
- 0.1 3 9 cbr 512 ------- 1 3.0 18.0 0 0
+ 0.1 4 18 cbr 512 ------- 1 4.0 9.0 0 1
- 0.1 4 18 cbr 512 ------- 1 4.0 9.0 0 1
+ 0.1 7 17 cbr 512 ------- 1 7.1 9.1 0 2
- 0.1 7 17 cbr 512 ------- 1 7.1 9.1 0 2
+ 0.1 14 18 cbr 512 ------- 1 14.0 17.0 0 3
- 0.1 14 18 cbr 512 ------- 1 14.0 17.0 0 3
+ 0.1 15 17 cbr 512 ------- 1 15.1 18.1 0 4
- 0.1 15 17 cbr 512 ------- 1 15.1 18.1 0 4
+ 0.1 16 17 cbr 512 ------- 1 16.0 9.2 0 5
- 0.1 16 17 cbr 512 ------- 1 16.0 9.2 0 5
+ 0.108 3 9 cbr 512 ------- 1 3.0 18.0 1 6
- 0.108 3 9 cbr 512 ------- 1 3.0 18.0 1 6
+ 0.108 4 18 cbr 512 ------- 1 4.0 9.0 1 7
- 0.108 4 18 cbr 512 ------- 1 4.0 9.0 1 7
+ 0.108 7 17 cbr 512 ------- 1 7.1 9.1 1 8
- 0.108 7 17 cbr 512 ------- 1 7.1 9.1 1 8
+ 0.108 14 18 cbr 512 ------- 1 14.0 17.0 1 9
- 0.108 14 18 cbr 512 ------- 1 14.0 17.0 1 9
+ 0.108 15 17 cbr 512 ------- 1 15.1 18.1 1 10
- 0.108 15 17 cbr 512 ------- 1 15.1 18.1 1 10
+ 0.108 16 17 cbr 512 ------- 1 16.0 9.2 1 11
- 0.108 16 17 cbr 512 ------- 1 16.0 9.2 1 11
r 0.114096 3 9 cbr 512 ------- 1 3.0 18.0 0 0
+ 0.114096 9 20 cbr 512 ------- 1 3.0 18.0 0 0
- 0.114096 9 20 cbr 512 ------- 1 3.0 18.0 0 0
r 0.114096 4 18 cbr 512 ------- 1 4.0 9.0 0 1
+ 0.114096 18 20 cbr 512 ------- 1 4.0 9.0 0 1
- 0.114096 18 20 cbr 512 ------- 1 4.0 9.0 0 1
r 0.114096 7 17 cbr 512 ------- 1 7.1 9.1 0 2
+ 0.114096 17 20 cbr 512 ------- 1 7.1 9.1 0 2
- 0.114096 17 20 cbr 512 ------- 1 7.1 9.1 0 2
r 0.114096 14 18 cbr 512 ------- 1 14.0 17.0 0 3
+ 0.114096 18 20 cbr 512 ------- 1 14.0 17.0 0 3
r 0.114096 15 17 cbr 512 ------- 1 15.1 18.1 0 4
+ 0.114096 17 20 cbr 512 ------- 1 15.1 18.1 0 4
r 0.114096 16 17 cbr 512 ------- 1 16.0 9.2 0 5
+ 0.114096 17 20 cbr 512 ------- 1 16.0 9.2 0 5
+ 0.116 3 9 cbr 512 ------- 1 3.0 18.0 2 12
- 0.116 3 9 cbr 512 ------- 1 3.0 18.0 2 12
+ 0.116 4 18 cbr 512 ------- 1 4.0 9.0 2 13
- 0.116 4 18 cbr 512 ------- 1 4.0 9.0 2 13
+ 0.116 7 17 cbr 512 ------- 1 7.1 9.1 2 14
- 0.116 7 17 cbr 512 ------- 1 7.1 9.1 2 14
+ 0.116 14 18 cbr 512 ------- 1 14.0 17.0 2 15
- 0.116 14 18 cbr 512 ------- 1 14.0 17.0 2 15
+ 0.116 15 17 cbr 512 ------- 1 15.1 18.1 2 16
- 0.116 15 17 cbr 512 ------- 1 15.1 18.1 2 16
+ 0.116 16 17 cbr 512 ------- 1 16.0 9.2 2 17
- 0.116 16 17 cbr 512 ------- 1 16.0 9.2 2 17
- 0.116144 18 20 cbr 512 ------- 1 14.0 17.0 0 3
- 0.116144 17 20 cbr 512 ------- 1 15.1 18.1 0 4
- 0.118192 17 20 cbr 512 ------- 1 16.0 9.2 0 5
r 0.121144 9 20 cbr 512 ------- 1 3.0 18.0 0 0
+ 0.121144 20 18 cbr 512 ------- 1 3.0 18.0 0 0
- 0.121144 20 18 cbr 512 ------- 1 3.0 18.0 0 0
r 0.121144 18 20 cbr 512 ------- 1 4.0 9.0 0 1
+ 0.121144 20 9 cbr 512 ------- 1 4.0 9.0 0 1
- 0.121144 20 9 cbr 512 ------- 1 4.0 9.0 0 1
r 0.121144 17 20 cbr 512 ------- 1 7.1 9.1 0 2
+ 0.121144 20 9 cbr 512 ------- 1 7.1 9.1 0 2
r 0.122096 3 9 cbr 512 ------- 1 3.0 18.0 1 6
+ 0.122096 9 20 cbr 512 ------- 1 3.0 18.0 1 6
- 0.122096 9 20 cbr 512 ------- 1 3.0 18.0 1 6
r 0.122096 4 18 cbr 512 ------- 1 4.0 9.0 1 7
+ 0.122096 18 20 cbr 512 ------- 1 4.0 9.0 1 7
- 0.122096 18 20 cbr 512 ------- 1 4.0 9.0 1 7
r 0.122096 7 17 cbr 512 ------- 1 7.1 9.1 1 8
+ 0.122096 17 20 cbr 512 ------- 1 7.1 9.1 1 8
- 0.122096 17 20 cbr 512 ------- 1 7.1 9.1 1 8
r 0.122096 14 18 cbr 512 ------- 1 14.0 17.0 1 9
+ 0.122096 18 20 cbr 512 ------- 1 14.0 17.0 1 9
r 0.122096 15 17 cbr 512 ------- 1 15.1 18.1 1 10
+ 0.122096 17 20 cbr 512 ------- 1 15.1 18.1 1 10
r 0.122096 16 17 cbr 512 ------- 1 16.0 9.2 1 11
+ 0.122096 17 20 cbr 512 ------- 1 16.0 9.2 1 11
r 0.123192 18 20 cbr 512 ------- 1 14.0 17.0 0 3
+ 0.123192 20 17 cbr 512 ------- 1 14.0 17.0 0 3
- 0.123192 20 17 cbr 512 ------- 1 14.0 17.0 0 3
r 0.123192 17 20 cbr 512 ------- 1 15.1 18.1 0 4
+ 0.123192 20 18 cbr 512 ------- 1 15.1 18.1 0 4
- 0.123192 20 18 cbr 512 ------- 1 15.1 18.1 0 4
- 0.123192 20 9 cbr 512 ------- 1 7.1 9.1 0 2
+ 0.124 3 9 cbr 512 ------- 1 3.0 18.0 3 18
- 0.124 3 9 cbr 512 ------- 1 3.0 18.0 3 18
+ 0.124 4 18 cbr 512 ------- 1 4.0 9.0 3 19
- 0.124 4 18 cbr 512 ------- 1 4.0 9.0 3 19
+ 0.124 7 17 cbr 512 ------- 1 7.1 9.1 3 20
- 0.124 7 17 cbr 512 ------- 1 7.1 9.1 3 20
+ 0.124 14 18 cbr 512 ------- 1 14.0 17.0 3 21
- 0.124 14 18 cbr 512 ------- 1 14.0 17.0 3 21
+ 0.124 15 17 cbr 512 ------- 1 15.1 18.1 3 22
- 0.124 15 17 cbr 512 ------- 1 15.1 18.1 3 22
+ 0.124 16 17 cbr 512 ------- 1 16.0 9.2 3 23
- 0.124 16 17 cbr 512 ------- 1 16.0 9.2 3 23
- 0.124144 18 20 cbr 512 ------- 1 14.0 17.0 1 9
- 0.124144 17 20 cbr 512 ------- 1 15.1 18.1 1 10
r 0.12524 17 20 cbr 512 ------- 1 16.0 9.2 0 5
+ 0.12524 20 9 cbr 512 ------- 1 16.0 9.2 0 5
- 0.12524 20 9 cbr 512 ------- 1 16.0 9.2 0 5
- 0.126192 17 20 cbr 512 ------- 1 16.0 9.2 1 11
r 0.128192 20 18 cbr 512 ------- 1 3.0 18.0 0 0
r 0.128192 20 9 cbr 512 ------- 1 4.0 9.0 0 1
r 0.129144 9 20 cbr 512 ------- 1 3.0 18.0 1 6
+ 0.129144 20 18 cbr 512 ------- 1 3.0 18.0 1 6
- 0.129144 20 18 cbr 512 ------- 1 3.0 18.0 1 6
r 0.129144 18 20 cbr 512 ------- 1 4.0 9.0 1 7
+ 0.129144 20 9 cbr 512 ------- 1 4.0 9.0 1 7
- 0.129144 20 9 cbr 512 ------- 1 4.0 9.0 1 7
r 0.129144 17 20 cbr 512 ------- 1 7.1 9.1 1 8
+ 0.129144 20 9 cbr 512 ------- 1 7.1 9.1 1 8
r 0.130096 3 9 cbr 512 ------- 1 3.0 18.0 2 12
+ 0.130096 9 20 cbr 512 ------- 1 3.0 18.0 2 12
- 0.130096 9 20 cbr 512 ------- 1 3.0 18.0 2 12
r 0.130096 4 18 cbr 512 ------- 1 4.0 9.0 2 13
+ 0.130096 18 20 cbr 512 ------- 1 4.0 9.0 2 13
- 0.130096 18 20 cbr 512 ------- 1 4.0 9.0 2 13
r 0.130096 7 17 cbr 512 ------- 1 7.1 9.1 2 14
+ 0.130096 17 20 cbr 512 ------- 1 7.1 9.1 2 14
- 0.130096 17 20 cbr 512 ------- 1 7.1 9.1 2 14
r 0.130096 14 18 cbr 512 ------- 1 14.0 17.0 2 15
+ 0.130096 18 20 cbr 512 ------- 1 14.0 17.0 2 15
r 0.130096 15 17 cbr 512 ------- 1 15.1 18.1 2 16
+ 0.130096 17 20 cbr 512 ------- 1 15.1 18.1 2 16
r 0.130096 16 17 cbr 512 ------- 1 16.0 9.2 2 17
+ 0.130096 17 20 cbr 512 ------- 1 16.0 9.2 2 17
r 0.13024 20 17 cbr 512 ------- 1 14.0 17.0 0 3
r 0.13024 20 18 cbr 512 ------- 1 15.1 18.1 0 4
r 0.13024 20 9 cbr 512 ------- 1 7.1 9.1 0 2
r 0.131192 18 20 cbr 512 ------- 1 14.0 17.0 1 9
+ 0.131192 20 17 cbr 512 ------- 1 14.0 17.0 1 9
- 0.131192 20 17 cbr 512 ------- 1 14.0 17.0 1 9
r 0.131192 17 20 cbr 512 ------- 1 15.1 18.1 1 10
+ 0.131192 20 18 cbr 512 ------- 1 15.1 18.1 1 10
- 0.131192 20 18 cbr 512 ------- 1 15.1 18.1 1 10
- 0.131192 20 9 cbr 512 ------- 1 7.1 9.1 1 8
+ 0.132 3 9 cbr 512 ------- 1 3.0 18.0 4 24
- 0.132 3 9 cbr 512 ------- 1 3.0 18.0 4 24
+ 0.132 4 18 cbr 512 ------- 1 4.0 9.0 4 25
- 0.132 4 18 cbr 512 ------- 1 4.0 9.0 4 25
+ 0.132 7 17 cbr 512 ------- 1 7.1 9.1 4 26
- 0.132 7 17 cbr 512 ------- 1 7.1 9.1 4 26
+ 0.132 14 18 cbr 512 ------- 1 14.0 17.0 4 27
- 0.132 14 18 cbr 512 ------- 1 14.0 17.0 4 27
+ 0.132 15 17 cbr 512 ------- 1 15.1 18.1 4 28
- 0.132 15 17 cbr 512 ------- 1 15.1 18.1 4 28
+ 0.132 16 17 cbr 512 ------- 1 16.0 9.2 4 29
- 0.132 16 17 cbr 512 ------- 1 16.0 9.2 4 29
- 0.132144 18 20 cbr 512 ------- 1 14.0 17.0 2 15
- 0.132144 17 20 cbr 512 ------- 1 15.1 18.1 2 16
r 0.132288 20 9 cbr 512 ------- 1 16.0 9.2 0 5
r 0.13324 17 20 cbr 512 ------- 1 16.0 9.2 1 11
+ 0.13324 20 9 cbr 512 ------- 1 16.0 9.2 1 11
- 0.13324 20 9 cbr 512 ------- 1 16.0 9.2 1 11
- 0.134192 17 20 cbr 512 ------- 1 16.0 9.2 2 17
r 0.136192 20 18 cbr 512 ------- 1 3.0 18.0 1 6
r 0.136192 20 9 cbr 512 ------- 1 4.0 9.0 1 7
r 0.137144 9 20 cbr 512 ------- 1 3.0 18.0 2 12
+ 0.137144 20 18 cbr 512 ------- 1 3.0 18.0 2 12
- 0.137144 20 18 cbr 512 ------- 1 3.0 18.0 2 12
r 0.137144 18 20 cbr 512 ------- 1 4.0 9.0 2 13
+ 0.137144 20 9 cbr 512 ------- 1 4.0 9.0 2 13
- 0.137144 20 9 cbr 512 ------- 1 4.0 9.0 2 13
r 0.137144 17 20 cbr 512 ------- 1 7.1 9.1 2 14
+ 0.137144 20 9 cbr 512 ------- 1 7.1 9.1 2 14
r 0.138096 3 9 cbr 512 ------- 1 3.0 18.0 3 18
+ 0.138096 9 20 cbr 512 ------- 1 3.0 18.0 3 18
- 0.138096 9 20 cbr 512 ------- 1 3.0 18.0 3 18
r 0.138096 4 18 cbr 512 ------- 1 4.0 9.0 3 19
+ 0.138096 18 20 cbr 512 ------- 1 4.0 9.0 3 19
- 0.138096 18 20 cbr 512 ------- 1 4.0 9.0 3 19
r 0.138096 7 17 cbr 512 ------- 1 7.1 9.1 3 20
+ 0.138096 17 20 cbr 512 ------- 1 7.1 9.1 3 20
- 0.138096 17 20 cbr 512 ------- 1 7.1 9.1 3 20
r 0.138096 14 18 cbr 512 ------- 1 14.0 17.0 3 21
+ 0.138096 18 20 cbr 512 ------- 1 14.0 17.0 3 21
r 0.138096 15 17 cbr 512 ------- 1 15.1 18.1 3 22
+ 0.138096 17 20 cbr 512 ------- 1 15.1 18.1 3 22
r 0.138096 16 17 cbr 512 ------- 1 16.0 9.2 3 23
+ 0.138096 17 20 cbr 512 ------- 1 16.0 9.2 3 23
r 0.13824 20 17 cbr 512 ------- 1 14.0 17.0 1 9
r 0.13824 20 18 cbr 512 ------- 1 15.1 18.1 1 10
r 0.13824 20 9 cbr 512 ------- 1 7.1 9.1 1 8
r 0.139192 18 20 cbr 512 ------- 1 14.0 17.0 2 15
+ 0.139192 20 17 cbr 512 ------- 1 14.0 17.0 2 15
- 0.139192 20 17 cbr 512 ------- 1 14.0 17.0 2 15
r 0.139192 17 20 cbr 512 ------- 1 15.1 18.1 2 16
+ 0.139192 20 18 cbr 512 ------- 1 15.1 18.1 2 16
- 0.139192 20 18 cbr 512 ------- 1 15.1 18.1 2 16
- 0.139192 20 9 cbr 512 ------- 1 7.1 9.1 2 14
+ 0.14 3 9 cbr 512 ------- 1 3.0 18.0 5 30
- 0.14 3 9 cbr 512 ------- 1 3.0 18.0 5 30
+ 0.14 4 18 cbr 512 ------- 1 4.0 9.0 5 31
- 0.14 4 18 cbr 512 ------- 1 4.0 9.0 5 31
+ 0.14 7 17 cbr 512 ------- 1 7.1 9.1 5 32
- 0.14 7 17 cbr 512 ------- 1 7.1 9.1 5 32
+ 0.14 14 18 cbr 512 ------- 1 14.0 17.0 5 33
- 0.14 14 18 cbr 512 ------- 1 14.0 17.0 5 33
+ 0.14 15 17 cbr 512 ------- 1 15.1 18.1 5 34
- 0.14 15 17 cbr 512 ------- 1 15.1 18.1 5 34
+ 0.14 16 17 cbr 512 ------- 1 16.0 9.2 5 35
- 0.14 16 17 cbr 512 ------- 1 16.0 9.2 5 35
- 0.140144 18 20 cbr 512 ------- 1 14.0 17.0 3 21
- 0.140144 17 20 cbr 512 ------- 1 15.1 18.1 3 22
r 0.140288 20 9 cbr 512 ------- 1 16.0 9.2 1 11
r 0.14124 17 20 cbr 512 ------- 1 16.0 9.2 2 17
+ 0.14124 20 9 cbr 512 ------- 1 16.0 9.2 2 17
- 0.14124 20 9 cbr 512 ------- 1 16.0 9.2 2 17
- 0.142192 17 20 cbr 512 ------- 1 16.0 9.2 3 23
r 0.144192 20 18 cbr 512 ------- 1 3.0 18.0 2 12
r 0.144192 20 9 cbr 512 ------- 1 4.0 9.0 2 13
r 0.145144 9 20 cbr 512 ------- 1 3.0 18.0 3 18
+ 0.145144 20 18 cbr 512 ------- 1 3.0 18.0 3 18
- 0.145144 20 18 cbr 512 ------- 1 3.0 18.0 3 18
r 0.145144 18 20 cbr 512 ------- 1 4.0 9.0 3 19
+ 0.145144 20 9 cbr 512 ------- 1 4.0 9.0 3 19
- 0.145144 20 9 cbr 512 ------- 1 4.0 9.0 3 19
r 0.145144 17 20 cbr 512 ------- 1 7.1 9.1 3 20
+ 0.145144 20 9 cbr 512 ------- 1 7.1 9.1 3 20
r 0.146096 3 9 cbr 512 ------- 1 3.0 18.0 4 24
+ 0.146096 9 20 cbr 512 ------- 1 3.0 18.0 4 24
- 0.146096 9 20 cbr 512 ------- 1 3.0 18.0 4 24
r 0.146096 4 18 cbr 512 ------- 1 4.0 9.0 4 25
+ 0.146096 18 20 cbr 512 ------- 1 4.0 9.0 4 25
- 0.146096 18 20 cbr 512 ------- 1 4.0 9.0 4 25
r 0.146096 7 17 cbr 512 ------- 1 7.1 9.1 4 26
+ 0.146096 17 20 cbr 512 ------- 1 7.1 9.1 4 26
- 0.146096 17 20 cbr 512 ------- 1 7.1 9.1 4 26
r 0.146096 14 18 cbr 512 ------- 1 14.0 17.0 4 27
+ 0.146096 18 20 cbr 512 ------- 1 14.0 17.0 4 27
r 0.146096 15 17 cbr 512 ------- 1 15.1 18.1 4 28
+ 0.146096 17 20 cbr 512 ------- 1 15.1 18.1 4 28
r 0.146096 16 17 cbr 512 ------- 1 16.0 9.2 4 29
+ 0.146096 17 20 cbr 512 ------- 1 16.0 9.2 4 29
r 0.14624 20 17 cbr 512 ------- 1 14.0 17.0 2 15
r 0.14624 20 18 cbr 512 ------- 1 15.1 18.1 2 16
r 0.14624 20 9 cbr 512 ------- 1 7.1 9.1 2 14
r 0.147192 18 20 cbr 512 ------- 1 14.0 17.0 3 21
+ 0.147192 20 17 cbr 512 ------- 1 14.0 17.0 3 21
- 0.147192 20 17 cbr 512 ------- 1 14.0 17.0 3 21
r 0.147192 17 20 cbr 512 ------- 1 15.1 18.1 3 22
+ 0.147192 20 18 cbr 512 ------- 1 15.1 18.1 3 22
- 0.147192 20 18 cbr 512 ------- 1 15.1 18.1 3 22
- 0.147192 20 9 cbr 512 ------- 1 7.1 9.1 3 20
+ 0.148 3 9 cbr 512 ------- 1 3.0 18.0 6 36
- 0.148 3 9 cbr 512 ------- 1 3.0 18.0 6 36
+ 0.148 4 18 cbr 512 ------- 1 4.0 9.0 6 37
- 0.148 4 18 cbr 512 ------- 1 4.0 9.0 6 37
+ 0.148 7 17 cbr 512 ------- 1 7.1 9.1 6 38
- 0.148 7 17 cbr 512 ------- 1 7.1 9.1 6 38
+ 0.148 14 18 cbr 512 ------- 1 14.0 17.0 6 39
- 0.148 14 18 cbr 512 ------- 1 14.0 17.0 6 39
+ 0.148 15 17 cbr 512 ------- 1 15.1 18.1 6 40
- 0.148 15 17 cbr 512 ------- 1 15.1 18.1 6 40
+ 0.148 16 17 cbr 512 ------- 1 16.0 9.2 6 41
- 0.148 16 17 cbr 512 ------- 1 16.0 9.2 6 41
- 0.148144 18 20 cbr 512 ------- 1 14.0 17.0 4 27
- 0.148144 17 20 cbr 512 ------- 1 15.1 18.1 4 28
r 0.148288 20 9 cbr 512 ------- 1 16.0 9.2 2 17
r 0.14924 17 20 cbr 512 ------- 1 16.0 9.2 3 23
+ 0.14924 20 9 cbr 512 ------- 1 16.0 9.2 3 23
- 0.14924 20 9 cbr 512 ------- 1 16.0 9.2 3 23
- 0.150192 17 20 cbr 512 ------- 1 16.0 9.2 4 29
r 0.152192 20 18 cbr 512 ------- 1 3.0 18.0 3 18
r 0.152192 20 9 cbr 512 ------- 1 4.0 9.0 3 19
r 0.153144 9 20 cbr 512 ------- 1 3.0 18.0 4 24
+ 0.153144 20 18 cbr 512 ------- 1 3.0 18.0 4 24
- 0.153144 20 18 cbr 512 ------- 1 3.0 18.0 4 24
r 0.153144 18 20 cbr 512 ------- 1 4.0 9.0 4 25
+ 0.153144 20 9 cbr 512 ------- 1 4.0 9.0 4 25
- 0.153144 20 9 cbr 512 ------- 1 4.0 9.0 4 25
r 0.153144 17 20 cbr 512 ------- 1 7.1 9.1 4 26
+ 0.153144 20 9 cbr 512 ------- 1 7.1 9.1 4 26
r 0.154096 3 9 cbr 512 ------- 1 3.0 18.0 5 30
+ 0.154096 9 20 cbr 512 ------- 1 3.0 18.0 5 30
- 0.154096 9 20 cbr 512 ------- 1 3.0 18.0 5 30
r 0.154096 4 18 cbr 512 ------- 1 4.0 9.0 5 31
+ 0.154096 18 20 cbr 512 ------- 1 4.0 9.0 5 31
- 0.154096 18 20 cbr 512 ------- 1 4.0 9.0 5 31
r 0.154096 7 17 cbr 512 ------- 1 7.1 9.1 5 32
+ 0.154096 17 20 cbr 512 ------- 1 7.1 9.1 5 32
- 0.154096 17 20 cbr 512 ------- 1 7.1 9.1 5 32
r 0.154096 14 18 cbr 512 ------- 1 14.0 17.0 5 33
+ 0.154096 18 20 cbr 512 ------- 1 14.0 17.0 5 33
r 0.154096 15 17 cbr 512 ------- 1 15.1 18.1 5 34
+ 0.154096 17 20 cbr 512 ------- 1 15.1 18.1 5 34
r 0.154096 16 17 cbr 512 ------- 1 16.0 9.2 5 35
+ 0.154096 17 20 cbr 512 ------- 1 16.0 9.2 5 35
r 0.15424 20 17 cbr 512 ------- 1 14.0 17.0 3 21
r 0.15424 20 18 cbr 512 ------- 1 15.1 18.1 3 22
r 0.15424 20 9 cbr 512 ------- 1 7.1 9.1 3 20
r 0.155192 18 20 cbr 512 ------- 1 14.0 17.0 4 27
+ 0.155192 20 17 cbr 512 ------- 1 14.0 17.0 4 27
- 0.155192 20 17 cbr 512 ------- 1 14.0 17.0 4 27
r 0.155192 17 20 cbr 512 ------- 1 15.1 18.1 4 28
+ 0.155192 20 18 cbr 512 ------- 1 15.1 18.1 4 28
- 0.155192 20 18 cbr 512 ------- 1 15.1 18.1 4 28
- 0.155192 20 9 cbr 512 ------- 1 7.1 9.1 4 26
+ 0.156 3 9 cbr 512 ------- 1 3.0 18.0 7 42
- 0.156 3 9 cbr 512 ------- 1 3.0 18.0 7 42
+ 0.156 4 18 cbr 512 ------- 1 4.0 9.0 7 43
- 0.156 4 18 cbr 512 ------- 1 4.0 9.0 7 43
+ 0.156 7 17 cbr 512 ------- 1 7.1 9.1 7 44
- 0.156 7 17 cbr 512 ------- 1 7.1 9.1 7 44
+ 0.156 14 18 cbr 512 ------- 1 14.0 17.0 7 45
- 0.156 14 18 cbr 512 ------- 1 14.0 17.0 7 45
+ 0.156 15 17 cbr 512 ------- 1 15.1 18.1 7 46
- 0.156 15 17 cbr 512 ------- 1 15.1 18.1 7 46
+ 0.156 16 17 cbr 512 ------- 1 16.0 9.2 7 47
- 0.156 16 17 cbr 512 ------- 1 16.0 9.2 7 47
- 0.156144 18 20 cbr 512 ------- 1 14.0 17.0 5 33
- 0.156144 17 20 cbr 512 ------- 1 15.1 18.1 5 34
r 0.156288 20 9 cbr 512 ------- 1 16.0 9.2 3 23
r 0.15724 17 20 cbr 512 ------- 1 16.0 9.2 4 29
+ 0.15724 20 9 cbr 512 ------- 1 16.0 9.2 4 29
- 0.15724 20 9 cbr 512 ------- 1 16.0 9.2 4 29
- 0.158192 17 20 cbr 512 ------- 1 16.0 9.2 5 35
r 0.160192 20 18 cbr 512 ------- 1 3.0 18.0 4 24
r 0.160192 20 9 cbr 512 ------- 1 4.0 9.0 4 25
r 0.161144 9 20 cbr 512 ------- 1 3.0 18.0 5 30
+ 0.161144 20 18 cbr 512 ------- 1 3.0 18.0 5 30
- 0.161144 20 18 cbr 512 ------- 1 3.0 18.0 5 30
r 0.161144 18 20 cbr 512 ------- 1 4.0 9.0 5 31
+ 0.161144 20 9 cbr 512 ------- 1 4.0 9.0 5 31
- 0.161144 20 9 cbr 512 ------- 1 4.0 9.0 5 31
r 0.161144 17 20 cbr 512 ------- 1 7.1 9.1 5 32
+ 0.161144 20 9 cbr 512 ------- 1 7.1 9.1 5 32
r 0.162096 3 9 cbr 512 ------- 1 3.0 18.0 6 36
+ 0.162096 9 20 cbr 512 ------- 1 3.0 18.0 6 36
- 0.162096 9 20 cbr 512 ------- 1 3.0 18.0 6 36
r 0.162096 4 18 cbr 512 ------- 1 4.0 9.0 6 37
+ 0.162096 18 20 cbr 512 ------- 1 4.0 9.0 6 37
- 0.162096 18 20 cbr 512 ------- 1 4.0 9.0 6 37
r 0.162096 7 17 cbr 512 ------- 1 7.1 9.1 6 38
+ 0.162096 17 20 cbr 512 ------- 1 7.1 9.1 6 38
- 0.162096 17 20 cbr 512 ------- 1 7.1 9.1 6 38
r 0.162096 14 18 cbr 512 ------- 1 14.0 17.0 6 39
+ 0.162096 18 20 cbr 512 ------- 1 14.0 17.0 6 39
r 0.162096 15 17 cbr 512 ------- 1 15.1 18.1 6 40
+ 0.162096 17 20 cbr 512 ------- 1 15.1 18.1 6 40
r 0.162096 16 17 cbr 512 ------- 1 16.0 9.2 6 41
+ 0.162096 17 20 cbr 512 ------- 1 16.0 9.2 6 41
r 0.16224 20 17 cbr 512 ------- 1 14.0 17.0 4 27
r 0.16224 20 18 cbr 512 ------- 1 15.1 18.1 4 28
r 0.16224 20 9 cbr 512 ------- 1 7.1 9.1 4 26
r 0.163192 18 20 cbr 512 ------- 1 14.0 17.0 5 33
+ 0.163192 20 17 cbr 512 ------- 1 14.0 17.0 5 33
- 0.163192 20 17 cbr 512 ------- 1 14.0 17.0 5 33
r 0.163192 17 20 cbr 512 ------- 1 15.1 18.1 5 34
+ 0.163192 20 18 cbr 512 ------- 1 15.1 18.1 5 34
- 0.163192 20 18 cbr 512 ------- 1 15.1 18.1 5 34
- 0.163192 20 9 cbr 512 ------- 1 7.1 9.1 5 32
+ 0.164 3 9 cbr 512 ------- 1 3.0 18.0 8 48
- 0.164 3 9 cbr 512 ------- 1 3.0 18.0 8 48
+ 0.164 4 18 cbr 512 ------- 1 4.0 9.0 8 49
- 0.164 4 18 cbr 512 ------- 1 4.0 9.0 8 49
+ 0.164 7 17 cbr 512 ------- 1 7.1 9.1 8 50
- 0.164 7 17 cbr 512 ------- 1 7.1 9.1 8 50
+ 0.164 14 18 cbr 512 ------- 1 14.0 17.0 8 51
- 0.164 14 18 cbr 512 ------- 1 14.0 17.0 8 51
+ 0.164 15 17 cbr 512 ------- 1 15.1 18.1 8 52
- 0.164 15 17 cbr 512 ------- 1 15.1 18.1 8 52
+ 0.164 16 17 cbr 512 ------- 1 16.0 9.2 8 53
- 0.164 16 17 cbr 512 ------- 1 16.0 9.2 8 53
- 0.164144 18 20 cbr 512 ------- 1 14.0 17.0 6 39
- 0.164144 17 20 cbr 512 ------- 1 15.1 18.1 6 40
r 0.164288 20 9 cbr 512 ------- 1 16.0 9.2 4 29
r 0.16524 17 20 cbr 512 ------- 1 16.0 9.2 5 35
+ 0.16524 20 9 cbr 512 ------- 1 16.0 9.2 5 35
- 0.16524 20 9 cbr 512 ------- 1 16.0 9.2 5 35
- 0.166192 17 20 cbr 512 ------- 1 16.0 9.2 6 41
r 0.168192 20 18 cbr 512 ------- 1 3.0 18.0 5 30
r 0.168192 20 9 cbr 512 ------- 1 4.0 9.0 5 31
r 0.169144 9 20 cbr 512 ------- 1 3.0 18.0 6 36
+ 0.169144 20 18 cbr 512 ------- 1 3.0 18.0 6 36
- 0.169144 20 18 cbr 512 ------- 1 3.0 18.0 6 36
r 0.169144 18 20 cbr 512 ------- 1 4.0 9.0 6 37
+ 0.169144 20 9 cbr 512 ------- 1 4.0 9.0 6 37
- 0.169144 20 9 cbr 512 ------- 1 4.0 9.0 6 37
r 0.169144 17 20 cbr 512 ------- 1 7.1 9.1 6 38
+ 0.169144 20 9 cbr 512 ------- 1 7.1 9.1 6 38
r 0.170096 3 9 cbr 512 ------- 1 3.0 18.0 7 42
+ 0.170096 9 20 cbr 512 ------- 1 3.0 18.0 7 42
- 0.170096 9 20 cbr 512 ------- 1 3.0 18.0 7 42
r 0.170096 4 18 cbr 512 ------- 1 4.0 9.0 7 43
+ 0.170096 18 20 cbr 512 ------- 1 4.0 9.0 7 43
- 0.170096 18 20 cbr 512 ------- 1 4.0 9.0 7 43
r 0.170096 7 17 cbr 512 ------- 1 7.1 9.1 7 44
+ 0.170096 17 20 cbr 512 ------- 1 7.1 9.1 7 44
- 0.170096 17 20 cbr 512 ------- 1 7.1 9.1 7 44
r 0.170096 14 18 cbr 512 ------- 1 14.0 17.0 7 45
+ 0.170096 18 20 cbr 512 ------- 1 14.0 17.0 7 45
r 0.170096 15 17 cbr 512 ------- 1 15.1 18.1 7 46
+ 0.170096 17 20 cbr 512 ------- 1 15.1 18.1 7 46
r 0.170096 16 17 cbr 512 ------- 1 16.0 9.2 7 47
+ 0.170096 17 20 cbr 512 ------- 1 16.0 9.2 7 47
r 0.17024 20 17 cbr 512 ------- 1 14.0 17.0 5 33
r 0.17024 20 18 cbr 512 ------- 1 15.1 18.1 5 34
r 0.17024 20 9 cbr 512 ------- 1 7.1 9.1 5 32
r 0.171192 18 20 cbr 512 ------- 1 14.0 17.0 6 39
+ 0.171192 20 17 cbr 512 ------- 1 14.0 17.0 6 39
- 0.171192 20 17 cbr 512 ------- 1 14.0 17.0 6 39
r 0.171192 17 20 cbr 512 ------- 1 15.1 18.1 6 40
+ 0.171192 20 18 cbr 512 ------- 1 15.1 18.1 6 40
- 0.171192 20 18 cbr 512 ------- 1 15.1 18.1 6 40
- 0.171192 20 9 cbr 512 ------- 1 7.1 9.1 6 38
+ 0.172 3 9 cbr 512 ------- 1 3.0 18.0 9 54
- 0.172 3 9 cbr 512 ------- 1 3.0 18.0 9 54
+ 0.172 4 18 cbr 512 ------- 1 4.0 9.0 9 55
- 0.172 4 18 cbr 512 ------- 1 4.0 9.0 9 55
+ 0.172 7 17 cbr 512 ------- 1 7.1 9.1 9 56
- 0.172 7 17 cbr 512 ------- 1 7.1 9.1 9 56
+ 0.172 14 18 cbr 512 ------- 1 14.0 17.0 9 57
- 0.172 14 18 cbr 512 ------- 1 14.0 17.0 9 57
+ 0.172 15 17 cbr 512 ------- 1 15.1 18.1 9 58
- 0.172 15 17 cbr 512 ------- 1 15.1 18.1 9 58
+ 0.172 16 17 cbr 512 ------- 1 16.0 9.2 9 59
- 0.172 16 17 cbr 512 ------- 1 16.0 9.2 9 59
- 0.172144 18 20 cbr 512 ------- 1 14.0 17.0 7 45
- 0.172144 17 20 cbr 512 ------- 1 15.1 18.1 7 46
r 0.172288 20 9 cbr 512 ------- 1 16.0 9.2 5 35
r 0.17324 17 20 cbr 512 ------- 1 16.0 9.2 6 41
+ 0.17324 20 9 cbr 512 ------- 1 16.0 9.2 6 41
- 0.17324 20 9 cbr 512 ------- 1 16.0 9.2 6 41
- 0.174192 17 20 cbr 512 ------- 1 16.0 9.2 7 47
r 0.176192 20 18 cbr 512 ------- 1 3.0 18.0 6 36
r 0.176192 20 9 cbr 512 ------- 1 4.0 9.0 6 37
r 0.177144 9 20 cbr 512 ------- 1 3.0 18.0 7 42
+ 0.177144 20 18 cbr 512 ------- 1 3.0 18.0 7 42
- 0.177144 20 18 cbr 512 ------- 1 3.0 18.0 7 42
r 0.177144 18 20 cbr 512 ------- 1 4.0 9.0 7 43
+ 0.177144 20 9 cbr 512 ------- 1 4.0 9.0 7 43
- 0.177144 20 9 cbr 512 ------- 1 4.0 9.0 7 43
r 0.177144 17 20 cbr 512 ------- 1 7.1 9.1 7 44
+ 0.177144 20 9 cbr 512 ------- 1 7.1 9.1 7 44
r 0.178096 3 9 cbr 512 ------- 1 3.0 18.0 8 48
+ 0.178096 9 20 cbr 512 ------- 1 3.0 18.0 8 48
- 0.178096 9 20 cbr 512 ------- 1 3.0 18.0 8 48
r 0.178096 4 18 cbr 512 ------- 1 4.0 9.0 8 49
+ 0.178096 18 20 cbr 512 ------- 1 4.0 9.0 8 49
- 0.178096 18 20 cbr 512 ------- 1 4.0 9.0 8 49
r 0.178096 7 17 cbr 512 ------- 1 7.1 9.1 8 50
+ 0.178096 17 20 cbr 512 ------- 1 7.1 9.1 8 50
- 0.178096 17 20 cbr 512 ------- 1 7.1 9.1 8 50
r 0.178096 14 18 cbr 512 ------- 1 14.0 17.0 8 51
+ 0.178096 18 20 cbr 512 ------- 1 14.0 17.0 8 51
r 0.178096 15 17 cbr 512 ------- 1 15.1 18.1 8 52
+ 0.178096 17 20 cbr 512 ------- 1 15.1 18.1 8 52
r 0.178096 16 17 cbr 512 ------- 1 16.0 9.2 8 53
+ 0.178096 17 20 cbr 512 ------- 1 16.0 9.2 8 53
r 0.17824 20 17 cbr 512 ------- 1 14.0 17.0 6 39
r 0.17824 20 18 cbr 512 ------- 1 15.1 18.1 6 40
r 0.17824 20 9 cbr 512 ------- 1 7.1 9.1 6 38
r 0.179192 18 20 cbr 512 ------- 1 14.0 17.0 7 45
+ 0.179192 20 17 cbr 512 ------- 1 14.0 17.0 7 45
- 0.179192 20 17 cbr 512 ------- 1 14.0 17.0 7 45
r 0.179192 17 20 cbr 512 ------- 1 15.1 18.1 7 46
+ 0.179192 20 18 cbr 512 ------- 1 15.1 18.1 7 46
- 0.179192 20 18 cbr 512 ------- 1 15.1 18.1 7 46
- 0.179192 20 9 cbr 512 ------- 1 7.1 9.1 7 44
+ 0.18 3 9 cbr 512 ------- 1 3.0 18.0 10 60
- 0.18 3 9 cbr 512 ------- 1 3.0 18.0 10 60
+ 0.18 4 18 cbr 512 ------- 1 4.0 9.0 10 61
- 0.18 4 18 cbr 512 ------- 1 4.0 9.0 10 61
+ 0.18 7 17 cbr 512 ------- 1 7.1 9.1 10 62
- 0.18 7 17 cbr 512 ------- 1 7.1 9.1 10 62
+ 0.18 14 18 cbr 512 ------- 1 14.0 17.0 10 63
- 0.18 14 18 cbr 512 ------- 1 14.0 17.0 10 63
+ 0.18 15 17 cbr 512 ------- 1 15.1 18.1 10 64
- 0.18 15 17 cbr 512 ------- 1 15.1 18.1 10 64
+ 0.18 16 17 cbr 512 ------- 1 16.0 9.2 10 65
- 0.18 16 17 cbr 512 ------- 1 16.0 9.2 10 65
- 0.180144 18 20 cbr 512 ------- 1 14.0 17.0 8 51
- 0.180144 17 20 cbr 512 ------- 1 15.1 18.1 8 52
r 0.180288 20 9 cbr 512 ------- 1 16.0 9.2 6 41
r 0.18124 17 20 cbr 512 ------- 1 16.0 9.2 7 47
+ 0.18124 20 9 cbr 512 ------- 1 16.0 9.2 7 47
- 0.18124 20 9 cbr 512 ------- 1 16.0 9.2 7 47
- 0.182192 17 20 cbr 512 ------- 1 16.0 9.2 8 53
r 0.184192 20 18 cbr 512 ------- 1 3.0 18.0 7 42
r 0.184192 20 9 cbr 512 ------- 1 4.0 9.0 7 43
r 0.185144 9 20 cbr 512 ------- 1 3.0 18.0 8 48
+ 0.185144 20 18 cbr 512 ------- 1 3.0 18.0 8 48
- 0.185144 20 18 cbr 512 ------- 1 3.0 18.0 8 48
r 0.185144 18 20 cbr 512 ------- 1 4.0 9.0 8 49
+ 0.185144 20 9 cbr 512 ------- 1 4.0 9.0 8 49
- 0.185144 20 9 cbr 512 ------- 1 4.0 9.0 8 49
r 0.185144 17 20 cbr 512 ------- 1 7.1 9.1 8 50
+ 0.185144 20 9 cbr 512 ------- 1 7.1 9.1 8 50
r 0.186096 3 9 cbr 512 ------- 1 3.0 18.0 9 54
+ 0.186096 9 20 cbr 512 ------- 1 3.0 18.0 9 54
- 0.186096 9 20 cbr 512 ------- 1 3.0 18.0 9 54
r 0.186096 4 18 cbr 512 ------- 1 4.0 9.0 9 55
+ 0.186096 18 20 cbr 512 ------- 1 4.0 9.0 9 55
- 0.186096 18 20 cbr 512 ------- 1 4.0 9.0 9 55
r 0.186096 7 17 cbr 512 ------- 1 7.1 9.1 9 56
+ 0.186096 17 20 cbr 512 ------- 1 7.1 9.1 9 56
- 0.186096 17 20 cbr 512 ------- 1 7.1 9.1 9 56
r 0.186096 14 18 cbr 512 ------- 1 14.0 17.0 9 57
+ 0.186096 18 20 cbr 512 ------- 1 14.0 17.0 9 57
r 0.186096 15 17 cbr 512 ------- 1 15.1 18.1 9 58
+ 0.186096 17 20 cbr 512 ------- 1 15.1 18.1 9 58
r 0.186096 16 17 cbr 512 ------- 1 16.0 9.2 9 59
+ 0.186096 17 20 cbr 512 ------- 1 16.0 9.2 9 59
r 0.18624 20 17 cbr 512 ------- 1 14.0 17.0 7 45
r 0.18624 20 18 cbr 512 ------- 1 15.1 18.1 7 46
r 0.18624 20 9 cbr 512 ------- 1 7.1 9.1 7 44
r 0.187192 18 20 cbr 512 ------- 1 14.0 17.0 8 51
+ 0.187192 20 17 cbr 512 ------- 1 14.0 17.0 8 51
- 0.187192 20 17 cbr 512 ------- 1 14.0 17.0 8 51
r 0.187192 17 20 cbr 512 ------- 1 15.1 18.1 8 52
+ 0.187192 20 18 cbr 512 ------- 1 15.1 18.1 8 52
- 0.187192 20 18 cbr 512 ------- 1 15.1 18.1 8 52
- 0.187192 20 9 cbr 512 ------- 1 7.1 9.1 8 50
+ 0.188 3 9 cbr 512 ------- 1 3.0 18.0 11 66
- 0.188 3 9 cbr 512 ------- 1 3.0 18.0 11 66
+ 0.188 4 18 cbr 512 ------- 1 4.0 9.0 11 67
- 0.188 4 18 cbr 512 ------- 1 4.0 9.0 11 67
+ 0.188 7 17 cbr 512 ------- 1 7.1 9.1 11 68
- 0.188 7 17 cbr 512 ------- 1 7.1 9.1 11 68
+ 0.188 14 18 cbr 512 ------- 1 14.0 17.0 11 69
- 0.188 14 18 cbr 512 ------- 1 14.0 17.0 11 69
+ 0.188 15 17 cbr 512 ------- 1 15.1 18.1 11 70
- 0.188 15 17 cbr 512 ------- 1 15.1 18.1 11 70
+ 0.188 16 17 cbr 512 ------- 1 16.0 9.2 11 71
- 0.188 16 17 cbr 512 ------- 1 16.0 9.2 11 71
- 0.188144 18 20 cbr 512 ------- 1 14.0 17.0 9 57
- 0.188144 17 20 cbr 512 ------- 1 15.1 18.1 9 58
r 0.188288 20 9 cbr 512 ------- 1 16.0 9.2 7 47
r 0.18924 17 20 cbr 512 ------- 1 16.0 9.2 8 53
+ 0.18924 20 9 cbr 512 ------- 1 16.0 9.2 8 53
- 0.18924 20 9 cbr 512 ------- 1 16.0 9.2 8 53
- 0.190192 17 20 cbr 512 ------- 1 16.0 9.2 9 59
r 0.192192 20 18 cbr 512 ------- 1 3.0 18.0 8 48
r 0.192192 20 9 cbr 512 ------- 1 4.0 9.0 8 49
r 0.193144 9 20 cbr 512 ------- 1 3.0 18.0 9 54
+ 0.193144 20 18 cbr 512 ------- 1 3.0 18.0 9 54
- 0.193144 20 18 cbr 512 ------- 1 3.0 18.0 9 54
r 0.193144 18 20 cbr 512 ------- 1 4.0 9.0 9 55
+ 0.193144 20 9 cbr 512 ------- 1 4.0 9.0 9 55
- 0.193144 20 9 cbr 512 ------- 1 4.0 9.0 9 55
r 0.193144 17 20 cbr 512 ------- 1 7.1 9.1 9 56
+ 0.193144 20 9 cbr 512 ------- 1 7.1 9.1 9 56
r 0.194096 3 9 cbr 512 ------- 1 3.0 18.0 10 60
+ 0.194096 9 20 cbr 512 ------- 1 3.0 18.0 10 60
- 0.194096 9 20 cbr 512 ------- 1 3.0 18.0 10 60
r 0.194096 4 18 cbr 512 ------- 1 4.0 9.0 10 61
+ 0.194096 18 20 cbr 512 ------- 1 4.0 9.0 10 61
- 0.194096 18 20 cbr 512 ------- 1 4.0 9.0 10 61
r 0.194096 7 17 cbr 512 ------- 1 7.1 9.1 10 62
+ 0.194096 17 20 cbr 512 ------- 1 7.1 9.1 10 62
- 0.194096 17 20 cbr 512 ------- 1 7.1 9.1 10 62
r 0.194096 14 18 cbr 512 ------- 1 14.0 17.0 10 63
+ 0.194096 18 20 cbr 512 ------- 1 14.0 17.0 10 63
r 0.194096 15 17 cbr 512 ------- 1 15.1 18.1 10 64
+ 0.194096 17 20 cbr 512 ------- 1 15.1 18.1 10 64
r 0.194096 16 17 cbr 512 ------- 1 16.0 9.2 10 65
+ 0.194096 17 20 cbr 512 ------- 1 16.0 9.2 10 65
r 0.19424 20 17 cbr 512 ------- 1 14.0 17.0 8 51
r 0.19424 20 18 cbr 512 ------- 1 15.1 18.1 8 52
r 0.19424 20 9 cbr 512 ------- 1 7.1 9.1 8 50
r 0.195192 18 20 cbr 512 ------- 1 14.0 17.0 9 57
+ 0.195192 20 17 cbr 512 ------- 1 14.0 17.0 9 57
- 0.195192 20 17 cbr 512 ------- 1 14.0 17.0 9 57
r 0.195192 17 20 cbr 512 ------- 1 15.1 18.1 9 58
+ 0.195192 20 18 cbr 512 ------- 1 15.1 18.1 9 58
- 0.195192 20 18 cbr 512 ------- 1 15.1 18.1 9 58
- 0.195192 20 9 cbr 512 ------- 1 7.1 9.1 9 56
+ 0.196 3 9 cbr 512 ------- 1 3.0 18.0 12 72
- 0.196 3 9 cbr 512 ------- 1 3.0 18.0 12 72
+ 0.196 4 18 cbr 512 ------- 1 4.0 9.0 12 73
- 0.196 4 18 cbr 512 ------- 1 4.0 9.0 12 73
+ 0.196 7 17 cbr 512 ------- 1 7.1 9.1 12 74
- 0.196 7 17 cbr 512 ------- 1 7.1 9.1 12 74
+ 0.196 14 18 cbr 512 ------- 1 14.0 17.0 12 75
- 0.196 14 18 cbr 512 ------- 1 14.0 17.0 12 75
+ 0.196 15 17 cbr 512 ------- 1 15.1 18.1 12 76
- 0.196 15 17 cbr 512 ------- 1 15.1 18.1 12 76
+ 0.196 16 17 cbr 512 ------- 1 16.0 9.2 12 77
- 0.196 16 17 cbr 512 ------- 1 16.0 9.2 12 77
- 0.196144 18 20 cbr 512 ------- 1 14.0 17.0 10 63
- 0.196144 17 20 cbr 512 ------- 1 15.1 18.1 10 64
r 0.196288 20 9 cbr 512 ------- 1 16.0 9.2 8 53
r 0.19724 17 20 cbr 512 ------- 1 16.0 9.2 9 59
+ 0.19724 20 9 cbr 512 ------- 1 16.0 9.2 9 59
- 0.19724 20 9 cbr 512 ------- 1 16.0 9.2 9 59
- 0.198192 17 20 cbr 512 ------- 1 16.0 9.2 10 65
r 0.200192 20 18 cbr 512 ------- 1 3.0 18.0 9 54
r 0.200192 20 9 cbr 512 ------- 1 4.0 9.0 9 55
r 0.201144 9 20 cbr 512 ------- 1 3.0 18.0 10 60
+ 0.201144 20 18 cbr 512 ------- 1 3.0 18.0 10 60
- 0.201144 20 18 cbr 512 ------- 1 3.0 18.0 10 60
r 0.201144 18 20 cbr 512 ------- 1 4.0 9.0 10 61
+ 0.201144 20 9 cbr 512 ------- 1 4.0 9.0 10 61
- 0.201144 20 9 cbr 512 ------- 1 4.0 9.0 10 61
r 0.201144 17 20 cbr 512 ------- 1 7.1 9.1 10 62
+ 0.201144 20 9 cbr 512 ------- 1 7.1 9.1 10 62
r 0.202096 3 9 cbr 512 ------- 1 3.0 18.0 11 66
+ 0.202096 9 20 cbr 512 ------- 1 3.0 18.0 11 66
- 0.202096 9 20 cbr 512 ------- 1 3.0 18.0 11 66
r 0.202096 4 18 cbr 512 ------- 1 4.0 9.0 11 67
+ 0.202096 18 20 cbr 512 ------- 1 4.0 9.0 11 67
- 0.202096 18 20 cbr 512 ------- 1 4.0 9.0 11 67
r 0.202096 7 17 cbr 512 ------- 1 7.1 9.1 11 68
+ 0.202096 17 20 cbr 512 ------- 1 7.1 9.1 11 68
- 0.202096 17 20 cbr 512 ------- 1 7.1 9.1 11 68
r 0.202096 14 18 cbr 512 ------- 1 14.0 17.0 11 69
+ 0.202096 18 20 cbr 512 ------- 1 14.0 17.0 11 69
r 0.202096 15 17 cbr 512 ------- 1 15.1 18.1 11 70
+ 0.202096 17 20 cbr 512 ------- 1 15.1 18.1 11 70
r 0.202096 16 17 cbr 512 ------- 1 16.0 9.2 11 71
+ 0.202096 17 20 cbr 512 ------- 1 16.0 9.2 11 71
r 0.20224 20 17 cbr 512 ------- 1 14.0 17.0 9 57
r 0.20224 20 18 cbr 512 ------- 1 15.1 18.1 9 58
r 0.20224 20 9 cbr 512 ------- 1 7.1 9.1 9 56
r 0.203192 18 20 cbr 512 ------- 1 14.0 17.0 10 63
+ 0.203192 20 17 cbr 512 ------- 1 14.0 17.0 10 63
- 0.203192 20 17 cbr 512 ------- 1 14.0 17.0 10 63
r 0.203192 17 20 cbr 512 ------- 1 15.1 18.1 10 64
+ 0.203192 20 18 cbr 512 ------- 1 15.1 18.1 10 64
- 0.203192 20 18 cbr 512 ------- 1 15.1 18.1 10 64
- 0.203192 20 9 cbr 512 ------- 1 7.1 9.1 10 62
+ 0.204 3 9 cbr 512 ------- 1 3.0 18.0 13 78
- 0.204 3 9 cbr 512 ------- 1 3.0 18.0 13 78
+ 0.204 4 18 cbr 512 ------- 1 4.0 9.0 13 79
- 0.204 4 18 cbr 512 ------- 1 4.0 9.0 13 79
+ 0.204 7 17 cbr 512 ------- 1 7.1 9.1 13 80
- 0.204 7 17 cbr 512 ------- 1 7.1 9.1 13 80
+ 0.204 14 18 cbr 512 ------- 1 14.0 17.0 13 81